CRYSTAL
PRIMVEC
1.0 0.0 0.0
0.0 1.0 0.0
0.0 0.0 1.0
PRIMCOORD
1 1
X 0.0 0.0 0.0
BEGIN_BLOCK_DATAGRID_3D
 lat
BEGIN_DATAGRID_3D_lat
4 4 4
0.0 0.0 0.0
1.5 0.0 0.0
0.0 1.5 0.0
0.0 0.0 1.5
1.0 0.0 0.0 0.0 0.0 0.0 0.0 0.0
0.0 0.0 0.0 0.0 0.0 0.0 0.0 0.0
0.0 0.0 0.0 0.0 0.0 0.0 0.0 0.0
0.0 0.0 0.0 0.0 0.0 0.0 0.0 0.0
0.0 0.0 0.0 0.0 0.0 0.0 0.0 0.0
0.0 0.0 0.0 0.0 0.0 0.0 0.0 0.0
0.0 0.0 0.0 0.0 0.0 0.0 0.0 0.0
0.0 0.0 0.0 0.0 0.0 0.0 0.0 0.0
END_DATAGRID_3D
END_BLOCK_DATAGRID_3D
