CRYSTAL
PRIMVEC
2.0 0.0 0.0
0.0 2.0 0.0
0.0 0.0 2.0
PRIMCOORD
1 1
X 5.0 0.0 0.0
BEGIN_BLOCK_DATAGRID_3D
 density
BEGIN_DATAGRID_3D_density
2 2 2
0.0 0.0 0.0
2.0 0.0 0.0
0.0 2.0 0.0
0.0 0.0 2.0
1.0 1.0 1.0 1.0
1.0 1.0 1.0 1.0
END_DATAGRID_3D
END_BLOCK_DATAGRID_3D
