CRYSTAL
PRIMVEC
3.0 0.0 0.0
0.0 3.0 0.0
0.0 0.0 3.0
PRIMCOORD
1 1
X 1.5 1.5 1.5
BEGIN_BLOCK_DATAGRID_3D
 spike
BEGIN_DATAGRID_3D_spike
3 3 3
0.0 0.0 0.0
3.0 0.0 0.0
0.0 3.0 0.0
0.0 0.0 3.0
0.0 0.0 0.0 0.0 0.0 0.0
0.0 0.0 0.0 0.0 0.0 0.0
0.0 1.0 0.0 0.0 0.0 0.0
0.0 0.0 0.0 0.0 0.0 0.0
0.0 0.0 0.0
END_DATAGRID_3D
END_BLOCK_DATAGRID_3D
