CRYSTAL
PRIMVEC
2.0 0.0 0.0
0.0 2.0 0.0
0.0 0.0 2.0
PRIMCOORD
1 1
X 0.5 0.0 0.0
BEGIN_BLOCK_DATAGRID_3D
 density
BEGIN_DATAGRID_3D_density
2 2 2
0.0 0.0 0.0
2.0 0.0 0.0
0.0 2.0 0.0
0.0 0.0 2.0
0.2 0.4 0.6 0.8
0.3 0.5 0.7 0.9
END_DATAGRID_3D
END_BLOCK_DATAGRID_3D
