CRYSTAL
PRIMVEC
1.0 0.0 0.0
0.0 1.0 0.0
0.0 0.0 1.0
PRIMCOORD
1 1
X 1.25 1.25 1.25
BEGIN_BLOCK_DATAGRID_3D
 smooth
BEGIN_DATAGRID_3D_smooth
6 6 6
0.0 0.0 0.0
2.5 0.0 0.0
0.0 2.5 0.0
0.0 0.0 2.5
5.767551330941847e-46 2.582141009237338e-36 1.7277233332358187e-31 1.7277233332358187e-31 2.582141009237338e-36 5.767551330941847e-46
2.582141009237338e-36 1.1560282360757713e-26 7.735042161533588e-22 7.735042161533588e-22 1.1560282360757713e-26 2.582141009237338e-36
1.7277233332358187e-31 7.735042161533588e-22 5.175555005801869e-17 5.175555005801869e-17 7.735042161533588e-22 1.7277233332358187e-31
1.7277233332358187e-31 7.735042161533588e-22 5.175555005801869e-17 5.175555005801869e-17 7.735042161533588e-22 1.7277233332358187e-31
2.582141009237338e-36 1.1560282360757713e-26 7.735042161533588e-22 7.735042161533588e-22 1.1560282360757713e-26 2.582141009237338e-36
5.767551330941847e-46 2.582141009237338e-36 1.7277233332358187e-31 1.7277233332358187e-31 2.582141009237338e-36 5.767551330941847e-46
2.582141009237338e-36 1.1560282360757713e-26 7.735042161533588e-22 7.735042161533588e-22 1.1560282360757713e-26 2.582141009237338e-36
1.1560282360757713e-26 5.175555005801869e-17 3.462989478103877e-12 3.462989478103877e-12 5.175555005801869e-17 1.1560282360757713e-26
7.735042161533588e-22 3.462989478103877e-12 2.3171034047584526e-7 2.3171034047584526e-7 3.462989478103877e-12 7.735042161533588e-22
7.735042161533588e-22 3.462989478103877e-12 2.3171034047584526e-7 2.3171034047584526e-7 3.462989478103877e-12 7.735042161533588e-22
1.1560282360757713e-26 5.175555005801869e-17 3.462989478103877e-12 3.462989478103877e-12 5.175555005801869e-17 1.1560282360757713e-26
2.582141009237338e-36 1.1560282360757713e-26 7.735042161533588e-22 7.735042161533588e-22 1.1560282360757713e-26 2.582141009237338e-36
1.7277233332358187e-31 7.735042161533588e-22 5.175555005801869e-17 5.175555005801869e-17 7.735042161533588e-22 1.7277233332358187e-31
7.735042161533588e-22 3.462989478103877e-12 2.3171034047584526e-7 2.3171034047584526e-7 3.462989478103877e-12 7.735042161533588e-22
5.175555005801869e-17 2.3171034047584526e-7 0.015503853599009314 0.015503853599009314 2.3171034047584526e-7 5.175555005801869e-17
5.175555005801869e-17 2.3171034047584526e-7 0.015503853599009314 0.015503853599009314 2.3171034047584526e-7 5.175555005801869e-17
7.735042161533588e-22 3.462989478103877e-12 2.3171034047584526e-7 2.3171034047584526e-7 3.462989478103877e-12 7.735042161533588e-22
1.7277233332358187e-31 7.735042161533588e-22 5.175555005801869e-17 5.175555005801869e-17 7.735042161533588e-22 1.7277233332358187e-31
1.7277233332358187e-31 7.735042161533588e-22 5.175555005801869e-17 5.175555005801869e-17 7.735042161533588e-22 1.7277233332358187e-31
7.735042161533588e-22 3.462989478103877e-12 2.3171034047584526e-7 2.3171034047584526e-7 3.462989478103877e-12 7.735042161533588e-22
5.175555005801869e-17 2.3171034047584526e-7 0.015503853599009314 0.015503853599009314 2.3171034047584526e-7 5.175555005801869e-17
5.175555005801869e-17 2.3171034047584526e-7 0.015503853599009314 0.015503853599009314 2.3171034047584526e-7 5.175555005801869e-17
7.735042161533588e-22 3.462989478103877e-12 2.3171034047584526e-7 2.3171034047584526e-7 3.462989478103877e-12 7.735042161533588e-22
1.7277233332358187e-31 7.735042161533588e-22 5.175555005801869e-17 5.175555005801869e-17 7.735042161533588e-22 1.7277233332358187e-31
2.582141009237338e-36 1.1560282360757713e-26 7.735042161533588e-22 7.735042161533588e-22 1.1560282360757713e-26 2.582141009237338e-36
1.1560282360757713e-26 5.175555005801869e-17 3.462989478103877e-12 3.462989478103877e-12 5.175555005801869e-17 1.1560282360757713e-26
7.735042161533588e-22 3.462989478103877e-12 2.3171034047584526e-7 2.3171034047584526e-7 3.462989478103877e-12 7.735042161533588e-22
7.735042161533588e-22 3.462989478103877e-12 2.3171034047584526e-7 2.3171034047584526e-7 3.462989478103877e-12 7.735042161533588e-22
1.1560282360757713e-26 5.175555005801869e-17 3.462989478103877e-12 3.462989478103877e-12 5.175555005801869e-17 1.1560282360757713e-26
2.582141009237338e-36 1.1560282360757713e-26 7.735042161533588e-22 7.735042161533588e-22 1.1560282360757713e-26 2.582141009237338e-36
5.767551330941847e-46 2.582141009237338e-36 1.7277233332358187e-31 1.7277233332358187e-31 2.582141009237338e-36 5.767551330941847e-46
2.582141009237338e-36 1.1560282360757713e-26 7.735042161533588e-22 7.735042161533588e-22 1.1560282360757713e-26 2.582141009237338e-36
1.7277233332358187e-31 7.735042161533588e-22 5.175555005801869e-17 5.175555005801869e-17 7.735042161533588e-22 1.7277233332358187e-31
1.7277233332358187e-31 7.735042161533588e-22 5.175555005801869e-17 5.175555005801869e-17 7.735042161533588e-22 1.7277233332358187e-31
2.582141009237338e-36 1.1560282360757713e-26 7.735042161533588e-22 7.735042161533588e-22 1.1560282360757713e-26 2.582141009237338e-36
5.767551330941847e-46 2.582141009237338e-36 1.7277233332358187e-31 1.7277233332358187e-31 2.582141009237338e-36 5.767551330941847e-46
END_DATAGRID_3D
END_BLOCK_DATAGRID_3D
